LAMMPS CONFIG FILE FOR HOMO-POLYMER

  42 atoms
  41 bonds
  39 angles

  2 atom types
  1 bond types
  1 angle types

  -200  200 xlo xhi
  -200  200 ylo yhi
  -200  200 zlo zhi

Masses

  1 1
  2 1

Atoms

1 1 2 -100  0 0
2 2 1 -95 0 0
3 3 1 -90 0 0
4 4 1 -85 0 0
5 5 1 -80 0 0
6 6 1 -75 0 0
7 7 1 -70 0 0
8 8 1 -65 0 0
9 9 1 -60 0 0
10  10  1 -55 0 0
11  11  1 -50 0 0
12  12  1 -45 0 0
13  13  1 -40 0 0
14  14  1 -35 0 0
15  15  1 -30 0 0
16  16  1 -25 0 0
17  17  1 -20 0 0
18  18  1 -15 0 0
19  19  1 -10 0 0
20  20  1 -5  0 0
21  21  1 0 0 0
22  22  1 5 0 0
23  23  1 10  0 0
24  24  1 15  0 0
25  25  1 20  0 0
26  26  1 25  0 0
27  27  1 30  0 0
28  28  1 35  0 0
29  29  1 40  0 0
30  30  1 45  0 0
31  31  1 50  0 0
32  32  1 55  0 0
33  33  1 60  0 0
34  34  1 65  0 0
35  35  1 70  0 0
36  36  1 75  0 0
37  37  1 80  0 0
38  38  1 85  0 0
39  39  1 90  0 0
40  40  1 95  0 0
41  41  1 100 0 0
42  42  2 105 0 0
  
Bonds

1 1 1 2
2 1 2 3
3 1 3 4
4 1 4 5
5 1 5 6
6 1 6 7
7 1 7 8
8 1 8 9
9 1 9 10
10  1 10  11
11  1 11  12
12  1 12  13
13  1 13  14
14  1 14  15
15  1 15  16
16  1 16  17
17  1 17  18
18  1 18  19
19  1 19  20
20  1 20  21
21  1 21  22
22  1 22  23
23  1 23  24
24  1 24  25
25  1 25  26
26  1 26  27
27  1 27  28
28  1 28  29
29  1 29  30
30  1 30  31
31  1 31  32
32  1 32  33
33  1 33  34
34  1 34  35
35  1 35  36
36  1 36  37
37  1 37  38
38  1 38  39
39  1 39  40
40  1 40  41
41  1 41  42

Angles

1 1 1 2 3
2 1 2 3 4
3 1 3 4 5
4 1 4 5 6
5 1 5 6 7
6 1 6 7 8
7 1 7 8 9
8 1 8 9 10
9 1 9 10  11
10  1 10  11  12
11  1 11  12  13
12  1 12  13  14
13  1 13  14  15
14  1 14  15  16
15  1 15  16  17
16  1 16  17  18
17  1 17  18  19
18  1 18  19  20
19  1 19  20  21
20  1 20  21  22
21  1 21  22  23
22  1 22  23  24
23  1 23  24  25
24  1 24  25  26
25  1 25  26  27
26  1 26  27  28
27  1 27  28  29
28  1 28  29  30
29  1 29  30  31
30  1 30  31  32
31  1 31  32  33
32  1 32  33  34
33  1 33  34  35
34  1 34  35  36
35  1 35  36  37
36  1 36  37  38
37  1 37  38  39
38  1 38  39  40
39  1 39  40  41